<?xml version="1.0" encoding="UTF-8"?>

<!-- generated on 2022-03-26 11:07:46 by Eclipse SUMO sumo Version 1.11.0
<configuration xmlns:xsi="http://www.w3.org/2001/XMLSchema-instance" xsi:noNamespaceSchemaLocation="http://sumo.dlr.de/xsd/sumoConfiguration.xsd">

    <input>
        <net-file value="DCC.net.xml"/>
        <additional-files value="DCC_trafficlights.add.xml,vtypes.add.xml,DCC_routes.rou.xml,DCC_emitters.emi.xml,rsu.poi.xml"/>
    </input>

    <output>
        <fcd-output value="low"/>
        <fcd-output.attributes value="x,y"/>
    </output>

    <time>
        <begin value="18000"/>
        <end value="18150"/>
        <step-length value="0.5"/>
    </time>

    <routing>
        <device.rerouting.probability value="1"/>
        <device.rerouting.threads value="8"/>
    </routing>

    <gui_only>
        <tracker-interval value="0.5"/>
    </gui_only>

</configuration>
-->

<fcd-export xmlns:xsi="http://www.w3.org/2001/XMLSchema-instance" xsi:noNamespaceSchemaLocation="http://sumo.dlr.de/xsd/fcd_file.xsd">
    <timestep time="18000.00">
        <vehicle id="1007_2.60" x="1873.59" y="4550.93"/>
        <vehicle id="103_1.22" x="4690.34" y="1070.08"/>
        <vehicle id="1072_3.45" x="5723.00" y="838.71"/>
        <vehicle id="1076_1.57" x="5229.89" y="1155.20"/>
        <vehicle id="1088_3.189" x="4292.63" y="2259.12"/>
        <vehicle id="109_5.153" x="3865.86" y="2456.81"/>
        <vehicle id="110_6.56" x="3864.43" y="2477.67"/>
        <vehicle id="111_2.30" x="3609.97" y="3225.15"/>
        <vehicle id="113_4.236" x="3619.10" y="3228.28"/>
        <vehicle id="115_2.46" x="3589.07" y="2718.86"/>
        <vehicle id="116_4.183" x="3588.34" y="2728.59"/>
        <vehicle id="1170_1.50" x="1799.76" y="4588.06"/>
        <vehicle id="1171_2.159" x="1860.86" y="4557.27"/>
        <vehicle id="117_5.69" x="3586.37" y="2708.68"/>
        <vehicle id="1245_4.3" x="3308.43" y="3325.85"/>
        <vehicle id="124_3.22" x="5212.88" y="2336.51"/>
        <vehicle id="1275_3.115" x="5156.20" y="1328.80"/>
        <vehicle id="1276_4.23" x="5156.02" y="1323.31"/>
        <vehicle id="1278_3.276" x="3137.02" y="2796.20"/>
        <vehicle id="1279_1.12" x="3144.40" y="2895.14"/>
        <vehicle id="1289_10.112" x="2625.47" y="2443.71"/>
        <vehicle id="12_1.65" x="5238.10" y="3437.57"/>
        <vehicle id="1350_1.33" x="2224.60" y="2706.76"/>
        <vehicle id="1351_2.83" x="2191.47" y="2700.88"/>
        <vehicle id="1359_2.14" x="6344.92" y="3440.14"/>
        <vehicle id="1362_3.84" x="6021.09" y="3366.76"/>
        <vehicle id="13_5.81" x="5227.54" y="3430.69"/>
        <vehicle id="140_1.61" x="3697.81" y="3904.11"/>
        <vehicle id="142_3.75" x="3705.18" y="3826.31"/>
        <vehicle id="154_1.68" x="4152.25" y="2634.02"/>
        <vehicle id="156_4.51" x="4158.17" y="2610.67"/>
        <vehicle id="157_1.115" x="4386.49" y="2606.71"/>
        <vehicle id="158_2.97" x="4414.07" y="2606.18"/>
        <vehicle id="169_1.87" x="2622.38" y="1370.40"/>
        <vehicle id="171_3.114" x="2613.55" y="1359.63"/>
        <vehicle id="173_1.275" x="4518.56" y="4457.48"/>
        <vehicle id="175_4.127" x="4493.36" y="4467.45"/>
        <vehicle id="177_1.45" x="3964.73" y="3627.12"/>
        <vehicle id="179_3.43" x="4001.55" y="3602.37"/>
        <vehicle id="181_1.43" x="4159.76" y="3955.95"/>
        <vehicle id="183_3.179" x="4151.28" y="3959.29"/>
        <vehicle id="185_1.211" x="4400.39" y="4285.02"/>
        <vehicle id="187_3.145" x="4428.55" y="4271.67"/>
        <vehicle id="192_1.183" x="4481.37" y="4350.28"/>
        <vehicle id="193_2.23" x="4467.90" y="4355.18"/>
        <vehicle id="194_5.61" x="4455.12" y="4358.45"/>
        <vehicle id="210_2.294" x="5089.52" y="5292.78"/>
        <vehicle id="212_4.341" x="4953.25" y="5341.65"/>
        <vehicle id="213_1.126" x="4496.65" y="4611.52"/>
        <vehicle id="215_3.99" x="4472.88" y="4619.71"/>
        <vehicle id="21_1.22" x="5615.71" y="1546.73"/>
        <vehicle id="226_1.172" x="6106.37" y="4740.41"/>
        <vehicle id="228_4.57" x="6117.32" y="4743.85"/>
        <vehicle id="237_1.45" x="4611.87" y="4079.13"/>
        <vehicle id="243_6.11" x="6426.78" y="1960.27"/>
        <vehicle id="24_4.26" x="5552.14" y="1511.83"/>
        <vehicle id="251_5.40" x="3676.40" y="966.97"/>
        <vehicle id="265_3.8" x="4133.06" y="1293.62"/>
        <vehicle id="26_2.5" x="5285.42" y="1881.18"/>
        <vehicle id="314_6.41" x="5554.13" y="943.18"/>
        <vehicle id="318_7.8" x="5137.28" y="1303.91"/>
        <vehicle id="33_2.21" x="5694.98" y="4572.23"/>
        <vehicle id="356_1.854" x="5043.40" y="1978.85"/>
        <vehicle id="35_4.29" x="5656.47" y="4578.00"/>
        <vehicle id="365_1.47" x="5973.20" y="566.39"/>
        <vehicle id="367_3.108" x="5969.34" y="565.96"/>
        <vehicle id="368_4.7" x="5848.61" y="711.27"/>
        <vehicle id="396_1.41" x="1567.72" y="4689.99"/>
        <vehicle id="401_2.33" x="3847.00" y="2267.16"/>
        <vehicle id="402_3.73" x="3843.77" y="2269.50"/>
        <vehicle id="403_1.51" x="3472.17" y="4422.00"/>
        <vehicle id="407_3.22" x="4623.73" y="4307.16"/>
        <vehicle id="412_5.36" x="4884.15" y="4231.05"/>
        <vehicle id="423_1.45" x="5956.21" y="4506.38"/>
        <vehicle id="425_3.69" x="5944.79" y="4512.48"/>
        <vehicle id="442_1.20" x="2268.64" y="2970.24"/>
        <vehicle id="454_1.69" x="4801.59" y="3746.52"/>
        <vehicle id="456_5.47" x="4775.15" y="3801.99"/>
        <vehicle id="462_7.22" x="3836.16" y="2032.72"/>
        <vehicle id="466_3.80" x="5609.98" y="2566.56"/>
        <vehicle id="467_4.3" x="5647.29" y="2552.03"/>
        <vehicle id="471_4.50" x="5922.13" y="2623.75"/>
        <vehicle id="477_3.46" x="5314.40" y="2650.47"/>
        <vehicle id="485_2.49" x="3599.25" y="4650.05"/>
        <vehicle id="487_4.60" x="3700.10" y="4628.91"/>
        <vehicle id="490_2.178" x="3626.76" y="4425.88"/>
        <vehicle id="491_3.85" x="3664.83" y="4428.47"/>
        <vehicle id="492_4.53" x="3720.55" y="4430.62"/>
        <vehicle id="500_1.68" x="3278.17" y="2797.15"/>
        <vehicle id="503_5.46" x="3281.80" y="2815.08"/>
        <vehicle id="541_6.76" x="4820.23" y="1752.54"/>
        <vehicle id="552_3.30" x="4866.62" y="3617.03"/>
        <vehicle id="57_1.272" x="4953.13" y="3088.53"/>
        <vehicle id="58_5.671" x="4956.16" y="3095.61"/>
        <vehicle id="595_5.22" x="5242.21" y="4095.69"/>
        <vehicle id="609_1.26" x="4961.94" y="3413.55"/>
        <vehicle id="611_3.13" x="4981.38" y="3373.97"/>
        <vehicle id="612_2.168" x="4909.66" y="2991.20"/>
        <vehicle id="613_3.79" x="4910.75" y="2994.50"/>
        <vehicle id="616_3.41" x="4959.04" y="2836.30"/>
        <vehicle id="623_6.49" x="5124.76" y="2812.20"/>
        <vehicle id="627_1.145" x="3032.59" y="2823.78"/>
        <vehicle id="630_7.170" x="3036.67" y="2839.58"/>
        <vehicle id="636_2.65" x="3830.04" y="2710.78"/>
        <vehicle id="637_3.73" x="3832.24" y="2694.79"/>
        <vehicle id="638_6.119" x="3834.12" y="2681.12"/>
        <vehicle id="640_1.119" x="5894.25" y="4364.25"/>
        <vehicle id="643_1.125" x="4689.23" y="2918.72"/>
        <vehicle id="644_2.110" x="4688.12" y="2921.72"/>
        <vehicle id="646_1.129" x="4653.52" y="3045.33"/>
        <vehicle id="647_3.61" x="4661.12" y="3020.58"/>
        <vehicle id="648_6.93" x="4665.49" y="3006.38"/>
        <vehicle id="649_1.59" x="4514.68" y="3517.03"/>
        <vehicle id="651_5.103" x="4517.94" y="3505.29"/>
        <vehicle id="652_1.94" x="4503.16" y="3560.94"/>
        <vehicle id="654_5.71" x="4501.16" y="3540.19"/>
        <vehicle id="65_1.23" x="3171.94" y="3221.42"/>
        <vehicle id="667_1.182" x="4722.44" y="2722.97"/>
        <vehicle id="668_5.166" x="4710.68" y="2711.87"/>
        <vehicle id="66_3.94" x="3170.43" y="3214.37"/>
        <vehicle id="670_2.408" x="4796.87" y="2837.11"/>
        <vehicle id="672_7.44" x="4756.56" y="2879.24"/>
        <vehicle id="676_2.4" x="5902.19" y="4785.02"/>
        <vehicle id="67_1.25" x="3951.07" y="3369.71"/>
        <vehicle id="693_1.51" x="5094.86" y="2380.30"/>
        <vehicle id="695_1.319" x="4532.10" y="2624.25"/>
        <vehicle id="696_3.115" x="4554.48" y="2628.82"/>
        <vehicle id="704_1.53" x="5646.19" y="4081.09"/>
        <vehicle id="705_5.165" x="5655.98" y="4072.45"/>
        <vehicle id="707_2.95" x="5115.78" y="2700.25"/>
        <vehicle id="718_3.62" x="4351.71" y="2502.43"/>
        <vehicle id="72_5.33" x="4051.53" y="1944.31"/>
        <vehicle id="753_2.51" x="3672.87" y="3313.79"/>
        <vehicle id="754_3.58" x="3673.00" y="3324.43"/>
        <vehicle id="755_1.40" x="5130.32" y="3216.50"/>
        <vehicle id="756_2.82" x="5122.84" y="3218.07"/>
        <vehicle id="757_1.168" x="5137.47" y="3090.80"/>
        <vehicle id="758_2.27" x="4982.09" y="3083.73"/>
        <vehicle id="760_6.60" x="5070.68" y="3087.26"/>
        <vehicle id="763_1.27" x="3294.99" y="2437.55"/>
        <vehicle id="764_2.37" x="3278.66" y="2442.42"/>
        <vehicle id="766_1.124" x="3602.66" y="2473.94"/>
        <vehicle id="771_4.56" x="3558.81" y="2478.54"/>
        <vehicle id="774_5.97" x="3230.91" y="2468.55"/>
        <vehicle id="775_2.71" x="2539.95" y="2759.25"/>
        <vehicle id="776_5.46" x="2554.13" y="2787.68"/>
        <vehicle id="78_5.52" x="4336.90" y="1311.97"/>
        <vehicle id="80_1.158" x="4120.24" y="2779.74"/>
        <vehicle id="812_1.117" x="5038.92" y="3249.02"/>
        <vehicle id="82_5.129" x="4118.14" y="2789.08"/>
        <vehicle id="840_1.70" x="4046.02" y="2936.35"/>
        <vehicle id="850_3.22" x="2745.14" y="2819.02"/>
        <vehicle id="853_2.125" x="4934.25" y="2122.93"/>
        <vehicle id="855_1.17" x="2026.90" y="4511.37"/>
        <vehicle id="857_3.36" x="2024.52" y="4507.42"/>
        <vehicle id="863_2.26" x="5355.35" y="2793.26"/>
        <vehicle id="88_1.9" x="4641.25" y="3544.93"/>
        <vehicle id="8_1.93" x="5474.82" y="3845.32"/>
        <vehicle id="920_1.64" x="2450.03" y="2359.65"/>
        <vehicle id="956_2.28" x="1493.17" y="2235.30"/>
        <vehicle id="974_2.122" x="5178.70" y="3287.15"/>
        <vehicle id="977_6.91" x="5195.01" y="3280.38"/>
        <vehicle id="986_3.49" x="4458.88" y="1677.94"/>
    </timestep>
    <timestep time="18000.50">
        <vehicle id="1007_2.60" x="1867.61" y="4553.91"/>
        <vehicle id="103_1.22" x="4691.14" y="1070.38"/>
        <vehicle id="1072_3.45" x="5723.72" y="838.30"/>
        <vehicle id="1076_1.57" x="5227.08" y="1162.49"/>
        <vehicle id="1088_3.189" x="4293.02" y="2262.41"/>
        <vehicle id="109_5.153" x="3865.85" y="2462.96"/>
        <vehicle id="110_6.56" x="3863.87" y="2484.85"/>
        <vehicle id="111_2.30" x="3605.68" y="3223.67"/>
        <vehicle id="113_4.236" x="3616.35" y="3227.34"/>
        <vehicle id="115_2.46" x="3590.89" y="2725.72"/>
        <vehicle id="116_4.183" x="3590.01" y="2734.88"/>
        <vehicle id="1170_1.50" x="1794.75" y="4592.56"/>
        <vehicle id="1171_2.159" x="1854.58" y="4560.40"/>
        <vehicle id="117_5.69" x="3587.64" y="2713.46"/>
        <vehicle id="1245_4.3" x="3307.97" y="3329.91"/>
        <vehicle id="124_3.22" x="5217.18" y="2334.36"/>
        <vehicle id="1275_3.115" x="5159.98" y="1323.15"/>
        <vehicle id="1276_4.23" x="5157.54" y="1321.03"/>
        <vehicle id="1278_3.276" x="3131.27" y="2797.08"/>
        <vehicle id="1279_1.12" x="3143.84" y="2891.24"/>
        <vehicle id="1289_10.112" x="2618.31" y="2442.98"/>
        <vehicle id="12_1.65" x="5235.52" y="3435.27"/>
        <vehicle id="1350_1.33" x="2225.64" y="2706.87"/>
        <vehicle id="1351_2.83" x="2196.88" y="2701.84"/>
        <vehicle id="1359_2.14" x="6341.51" y="3435.06"/>
        <vehicle id="1362_3.84" x="6014.27" y="3367.24"/>
        <vehicle id="13_5.81" x="5224.01" y="3429.56"/>
        <vehicle id="140_1.61" x="3698.52" y="3897.03"/>
        <vehicle id="142_3.75" x="3705.85" y="3819.07"/>
        <vehicle id="154_1.68" x="4152.94" y="2631.28"/>
        <vehicle id="156_4.51" x="4159.10" y="2607.02"/>
        <vehicle id="157_1.115" x="4390.30" y="2607.03"/>
        <vehicle id="158_2.97" x="4410.29" y="2605.79"/>
        <vehicle id="169_1.87" x="2626.36" y="1375.25"/>
        <vehicle id="171_3.114" x="2616.80" y="1363.59"/>
        <vehicle id="173_1.275" x="4522.68" y="4455.85"/>
        <vehicle id="175_4.127" x="4497.45" y="4465.83"/>
        <vehicle id="177_1.45" x="3968.12" y="3624.84"/>
        <vehicle id="179_3.43" x="4004.86" y="3600.15"/>
        <vehicle id="181_1.43" x="4162.40" y="3954.91"/>
        <vehicle id="183_3.179" x="4152.70" y="3958.73"/>
        <vehicle id="185_1.211" x="4403.91" y="4283.36"/>
        <vehicle id="187_3.145" x="4432.64" y="4269.73"/>
        <vehicle id="192_1.183" x="4482.06" y="4349.98"/>
        <vehicle id="193_2.23" x="4470.04" y="4354.63"/>
        <vehicle id="194_5.61" x="4457.09" y="4357.95"/>
        <vehicle id="210_2.294" x="5084.81" y="5296.54"/>
        <vehicle id="212_4.341" x="4946.72" y="5343.05"/>
        <vehicle id="213_1.126" x="4503.20" y="4609.13"/>
        <vehicle id="215_3.99" x="4479.01" y="4617.60"/>
        <vehicle id="21_1.22" x="5612.01" y="1544.70"/>
        <vehicle id="226_1.172" x="6099.44" y="4738.11"/>
        <vehicle id="228_4.57" x="6112.12" y="4742.22"/>
        <vehicle id="237_1.45" x="4607.94" y="4085.21"/>
        <vehicle id="243_6.11" x="6430.10" y="1965.87"/>
        <vehicle id="24_4.26" x="5548.96" y="1510.08"/>
        <vehicle id="251_5.40" x="3677.21" y="972.78"/>
        <vehicle id="265_3.8" x="4136.05" y="1294.04"/>
        <vehicle id="26_2.5" x="5282.47" y="1882.87"/>
        <vehicle id="314_6.41" x="5558.72" y="939.91"/>
        <vehicle id="318_7.8" x="5133.39" y="1303.06"/>
        <vehicle id="33_2.21" x="5699.36" y="4571.74"/>
        <vehicle id="356_1.854" x="5047.44" y="1977.25"/>
        <vehicle id="35_4.29" x="5663.63" y="4576.75"/>
        <vehicle id="365_1.47" x="5977.60" y="561.27"/>
        <vehicle id="367_3.108" x="5973.68" y="560.92"/>
        <vehicle id="368_4.7" x="5852.96" y="706.04"/>
        <vehicle id="396_1.41" x="1574.56" y="4686.54"/>
        <vehicle id="401_2.33" x="3847.06" y="2260.31"/>
        <vehicle id="402_3.73" x="3843.84" y="2262.76"/>
        <vehicle id="403_1.51" x="3478.85" y="4421.99"/>
        <vehicle id="407_3.22" x="4629.94" y="4305.16"/>
        <vehicle id="412_5.36" x="4890.25" y="4229.27"/>
        <vehicle id="423_1.45" x="5956.97" y="4506.04"/>
        <vehicle id="425_3.69" x="5946.32" y="4511.62"/>
        <vehicle id="442_1.20" x="2276.55" y="2969.82"/>
        <vehicle id="454_1.69" x="4798.44" y="3753.17"/>
        <vehicle id="456_5.47" x="4772.12" y="3808.29"/>
        <vehicle id="462_7.22" x="3835.46" y="2026.26"/>
        <vehicle id="466_3.80" x="5616.57" y="2564.59"/>
        <vehicle id="467_4.3" x="5653.21" y="2550.26"/>
        <vehicle id="471_4.50" x="5921.55" y="2616.70"/>
        <vehicle id="477_3.46" x="5307.89" y="2652.33"/>
        <vehicle id="485_2.49" x="3606.92" y="4648.48"/>
        <vehicle id="487_4.60" x="3704.90" y="4628.01"/>
        <vehicle id="490_2.178" x="3633.15" y="4426.24"/>
        <vehicle id="491_3.85" x="3671.50" y="4428.75"/>
        <vehicle id="492_4.53" x="3720.55" y="4430.62"/>
        <vehicle id="500_1.68" x="3277.37" y="2793.40"/>
        <vehicle id="503_5.46" x="3277.96" y="2812.03"/>
        <vehicle id="541_6.76" x="4824.08" y="1751.33"/>
        <vehicle id="552_3.30" x="4863.29" y="3624.06"/>
        <vehicle id="57_1.272" x="4955.95" y="3091.10"/>
        <vehicle id="58_5.671" x="4958.50" y="3098.02"/>
        <vehicle id="595_5.22" x="5237.30" y="4101.44"/>
        <vehicle id="609_1.26" x="4958.95" y="3419.65"/>
        <vehicle id="611_3.13" x="4978.03" y="3380.80"/>
        <vehicle id="612_2.168" x="4905.65" y="2991.10"/>
        <vehicle id="613_3.79" x="4904.70" y="2994.31"/>
        <vehicle id="616_3.41" x="4958.63" y="2842.48"/>
        <vehicle id="623_6.49" x="5129.04" y="2812.08"/>
        <vehicle id="627_1.145" x="3032.38" y="2822.95"/>
        <vehicle id="630_7.170" x="3036.04" y="2837.14"/>
        <vehicle id="636_2.65" x="3829.34" y="2715.84"/>
        <vehicle id="637_3.73" x="3831.62" y="2699.32"/>
        <vehicle id="638_6.119" x="3833.62" y="2684.73"/>
        <vehicle id="640_1.119" x="5897.40" y="4368.92"/>
        <vehicle id="641_2.253" x="5892.74" y="4362.03"/>
        <vehicle id="643_1.125" x="4689.23" y="2918.72"/>
        <vehicle id="644_2.110" x="4688.12" y="2921.72"/>
        <vehicle id="646_1.129" x="4652.21" y="3049.58"/>
        <vehicle id="647_3.61" x="4659.86" y="3024.68"/>
        <vehicle id="648_6.93" x="4664.39" y="3009.93"/>
        <vehicle id="649_1.59" x="4512.91" y="3521.65"/>
        <vehicle id="651_5.103" x="4517.04" y="3508.53"/>
        <vehicle id="652_1.94" x="4503.65" y="3557.06"/>
        <vehicle id="654_5.71" x="4499.68" y="3537.53"/>
        <vehicle id="65_1.23" x="3170.38" y="3227.60"/>
        <vehicle id="667_1.182" x="4719.57" y="2720.26"/>
        <vehicle id="668_5.166" x="4708.26" y="2709.11"/>
        <vehicle id="66_3.94" x="3168.85" y="3220.63"/>
        <vehicle id="670_2.408" x="4800.04" y="2833.80"/>
        <vehicle id="672_7.44" x="4759.70" y="2875.96"/>
        <vehicle id="676_2.4" x="5901.89" y="4792.38"/>
        <vehicle id="67_1.25" x="3955.46" y="3376.73"/>
        <vehicle id="693_1.51" x="5098.79" y="2379.07"/>
        <vehicle id="695_1.319" x="4535.70" y="2624.99"/>
        <vehicle id="696_3.115" x="4558.42" y="2629.68"/>
        <vehicle id="69_3.35" x="3948.73" y="3365.96"/>
        <vehicle id="704_1.53" x="5640.44" y="4086.17"/>
        <vehicle id="705_5.165" x="5651.29" y="4076.59"/>
        <vehicle id="707_2.95" x="5109.69" y="2701.85"/>
        <vehicle id="718_3.62" x="4351.47" y="2507.34"/>
        <vehicle id="72_5.33" x="4051.32" y="1951.94"/>
        <vehicle id="753_2.51" x="3674.94" y="3320.09"/>
        <vehicle id="754_3.58" x="3674.84" y="3330.02"/>
        <vehicle id="755_1.40" x="5137.97" y="3214.64"/>
        <vehicle id="756_2.82" x="5128.25" y="3216.94"/>
        <vehicle id="757_1.168" x="5143.84" y="3091.14"/>
        <vehicle id="758_2.27" x="4988.69" y="3083.85"/>
        <vehicle id="760_6.60" x="5077.29" y="3087.61"/>
        <vehicle id="763_1.27" x="3300.70" y="2435.85"/>
        <vehicle id="764_2.37" x="3283.63" y="2440.94"/>
        <vehicle id="766_1.124" x="3606.80" y="2478.65"/>
        <vehicle id="767_2.115" x="3601.70" y="2472.85"/>
        <vehicle id="771_4.56" x="3560.79" y="2475.05"/>
        <vehicle id="774_5.97" x="3231.29" y="2472.92"/>
        <vehicle id="775_2.71" x="2534.06" y="2755.87"/>
        <vehicle id="776_5.46" x="2552.12" y="2780.42"/>
        <vehicle id="78_5.52" x="4342.18" y="1312.42"/>
        <vehicle id="80_1.158" x="4121.80" y="2772.82"/>
        <vehicle id="812_1.117" x="5036.20" y="3255.09"/>
        <vehicle id="82_5.129" x="4119.29" y="2783.99"/>
        <vehicle id="840_1.70" x="4049.45" y="2937.32"/>
        <vehicle id="850_3.22" x="2738.63" y="2819.12"/>
        <vehicle id="853_2.125" x="4935.61" y="2127.13"/>
        <vehicle id="855_1.17" x="2025.15" y="4519.13"/>
        <vehicle id="857_3.36" x="2022.82" y="4514.92"/>
        <vehicle id="863_2.26" x="5360.03" y="2793.05"/>
        <vehicle id="88_1.9" x="4637.89" y="3542.45"/>
        <vehicle id="8_1.93" x="5480.85" y="3847.84"/>
        <vehicle id="920_1.64" x="2456.61" y="2362.38"/>
        <vehicle id="956_2.28" x="1497.07" y="2235.20"/>
        <vehicle id="974_2.122" x="5175.11" y="3288.64"/>
        <vehicle id="977_6.91" x="5191.42" y="3281.87"/>
        <vehicle id="986_3.49" x="4458.72" y="1682.25"/>
    </timestep>
    <timestep time="18001.00">
        <vehicle id="1007_2.60" x="1861.74" y="4556.83"/>
        <vehicle id="103_1.22" x="4692.12" y="1070.75"/>
        <vehicle id="1072_3.45" x="5724.82" y="837.66"/>
        <vehicle id="1076_1.57" x="5224.25" y="1169.87"/>
        <vehicle id="1088_3.189" x="4293.41" y="2265.62"/>
        <vehicle id="109_5.153" x="3865.32" y="2469.09"/>
        <vehicle id="10_3.66" x="5476.67" y="3846.10"/>
        <vehicle id="110_6.56" x="3863.15" y="2492.01"/>
        <vehicle id="111_2.30" x="3601.46" y="3222.23"/>
        <vehicle id="113_4.236" x="3613.44" y="3226.34"/>
        <vehicle id="115_2.46" x="3592.69" y="2732.50"/>
        <vehicle id="116_4.183" x="3591.59" y="2740.84"/>
        <vehicle id="1171_2.159" x="1848.31" y="4563.52"/>
        <vehicle id="117_5.69" x="3589.01" y="2718.61"/>
        <vehicle id="118_6.33" x="3586.25" y="2708.22"/>
        <vehicle id="1245_4.3" x="3307.51" y="3333.97"/>
        <vehicle id="124_3.22" x="5221.47" y="2332.21"/>
        <vehicle id="1275_3.115" x="5163.66" y="1317.73"/>
        <vehicle id="1276_4.23" x="5158.46" y="1318.64"/>
        <vehicle id="1278_3.276" x="3125.71" y="2798.92"/>
        <vehicle id="1279_1.12" x="3143.29" y="2887.41"/>
        <vehicle id="1289_10.112" x="2611.11" y="2442.67"/>
        <vehicle id="12_1.65" x="5233.04" y="3433.06"/>
        <vehicle id="1350_1.33" x="2227.13" y="2706.78"/>
        <vehicle id="1351_2.83" x="2201.66" y="2702.69"/>
        <vehicle id="1359_2.14" x="6338.08" y="3429.96"/>
        <vehicle id="1362_3.84" x="6007.43" y="3367.73"/>
        <vehicle id="13_5.81" x="5220.30" y="3428.37"/>
        <vehicle id="140_1.61" x="3699.23" y="3889.99"/>
        <vehicle id="142_3.75" x="3706.53" y="3811.64"/>
        <vehicle id="154_1.68" x="4153.62" y="2628.61"/>
        <vehicle id="156_4.51" x="4159.98" y="2603.52"/>
        <vehicle id="157_1.115" x="4394.41" y="2607.40"/>
        <vehicle id="158_2.97" x="4406.34" y="2605.39"/>
        <vehicle id="169_1.87" x="2630.11" y="1380.34"/>
        <vehicle id="171_3.114" x="2619.96" y="1367.45"/>
        <vehicle id="173_1.275" x="4526.73" y="4454.25"/>
        <vehicle id="175_4.127" x="4501.41" y="4464.26"/>
        <vehicle id="177_1.45" x="3971.36" y="3622.66"/>
        <vehicle id="179_3.43" x="4008.16" y="3597.93"/>
        <vehicle id="181_1.43" x="4165.31" y="3953.77"/>
        <vehicle id="183_3.179" x="4154.24" y="3958.12"/>
        <vehicle id="185_1.211" x="4407.27" y="4281.77"/>
        <vehicle id="187_3.145" x="4435.71" y="4268.28"/>
        <vehicle id="192_1.183" x="4482.67" y="4349.72"/>
        <vehicle id="193_2.23" x="4471.79" y="4354.18"/>
        <vehicle id="194_5.61" x="4459.25" y="4357.39"/>
        <vehicle id="210_2.294" x="5080.07" y="5300.34"/>
        <vehicle id="212_4.341" x="4940.18" y="5344.45"/>
        <vehicle id="213_1.126" x="4509.96" y="4606.63"/>
        <vehicle id="215_3.99" x="4485.05" y="4615.51"/>
        <vehicle id="21_1.22" x="5608.51" y="1542.78"/>
        <vehicle id="226_1.172" x="6092.24" y="4736.28"/>
        <vehicle id="228_4.57" x="6106.60" y="4740.49"/>
        <vehicle id="237_1.45" x="4603.94" y="4091.23"/>
        <vehicle id="243_6.11" x="6432.91" y="1971.67"/>
        <vehicle id="24_4.26" x="5545.85" y="1508.38"/>
        <vehicle id="251_5.40" x="3677.86" y="978.74"/>
        <vehicle id="265_3.8" x="4138.73" y="1295.27"/>
        <vehicle id="26_2.5" x="5279.56" y="1884.54"/>
        <vehicle id="314_6.41" x="5563.44" y="936.54"/>
        <vehicle id="318_7.8" x="5129.49" y="1302.95"/>
        <vehicle id="33_2.21" x="5702.64" y="4571.70"/>
        <vehicle id="356_1.854" x="5051.43" y="1975.67"/>
        <vehicle id="35_4.29" x="5670.41" y="4575.57"/>
        <vehicle id="365_1.47" x="5981.77" y="556.42"/>
        <vehicle id="367_3.108" x="5977.82" y="556.10"/>
        <vehicle id="368_4.7" x="5857.29" y="700.82"/>
        <vehicle id="396_1.41" x="1581.37" y="4683.02"/>
        <vehicle id="401_2.33" x="3847.13" y="2253.64"/>
        <vehicle id="402_3.73" x="3843.90" y="2256.17"/>
        <vehicle id="403_1.51" x="3485.50" y="4421.98"/>
        <vehicle id="407_3.22" x="4636.26" y="4302.74"/>
        <vehicle id="412_5.36" x="4896.49" y="4227.44"/>
        <vehicle id="423_1.45" x="5957.97" y="4505.59"/>
        <vehicle id="425_3.69" x="5947.56" y="4510.92"/>
        <vehicle id="442_1.20" x="2284.46" y="2969.53"/>
        <vehicle id="454_1.69" x="4795.28" y="3759.83"/>
        <vehicle id="456_5.47" x="4768.93" y="3814.74"/>
        <vehicle id="462_7.22" x="3834.80" y="2020.29"/>
        <vehicle id="466_3.80" x="5622.92" y="2562.68"/>
        <vehicle id="467_4.3" x="5659.11" y="2548.49"/>
        <vehicle id="471_4.50" x="5920.96" y="2609.72"/>
        <vehicle id="477_3.46" x="5301.38" y="2654.20"/>
        <vehicle id="485_2.49" x="3614.70" y="4646.89"/>
        <vehicle id="487_4.60" x="3708.70" y="4627.29"/>
        <vehicle id="490_2.178" x="3639.46" y="4426.59"/>
        <vehicle id="491_3.85" x="3677.81" y="4429.02"/>
        <vehicle id="492_4.53" x="3720.55" y="4430.62"/>
        <vehicle id="500_1.68" x="3276.77" y="2790.58"/>
        <vehicle id="503_5.46" x="3277.08" y="2807.49"/>
        <vehicle id="541_6.76" x="4827.86" y="1750.15"/>
        <vehicle id="552_3.30" x="4859.91" y="3631.18"/>
        <vehicle id="57_1.272" x="4958.78" y="3093.68"/>
        <vehicle id="58_5.671" x="4959.88" y="3101.25"/>
        <vehicle id="595_5.22" x="5231.71" y="4106.79"/>
        <vehicle id="609_1.26" x="4956.02" y="3425.62"/>
        <vehicle id="611_3.13" x="4974.64" y="3387.69"/>
        <vehicle id="612_2.168" x="4901.77" y="2991.95"/>
        <vehicle id="613_3.79" x="4899.37" y="2995.78"/>
        <vehicle id="616_3.41" x="4958.21" y="2848.70"/>
        <vehicle id="623_6.49" x="5133.39" y="2811.96"/>
        <vehicle id="627_1.145" x="3032.11" y="2821.91"/>
        <vehicle id="630_7.170" x="3035.49" y="2835.02"/>
        <vehicle id="636_2.65" x="3828.80" y="2719.78"/>
        <vehicle id="637_3.73" x="3831.00" y="2703.76"/>
        <vehicle id="638_6.119" x="3833.11" y="2688.49"/>
        <vehicle id="639_7.20" x="3834.12" y="2681.12"/>
        <vehicle id="640_1.119" x="5900.41" y="4373.37"/>
        <vehicle id="641_2.253" x="5894.61" y="4364.79"/>
        <vehicle id="643_1.125" x="4689.23" y="2918.72"/>
        <vehicle id="644_2.110" x="4688.12" y="2921.72"/>
        <vehicle id="646_1.129" x="4650.89" y="3053.87"/>
        <vehicle id="647_3.61" x="4658.62" y="3028.73"/>
        <vehicle id="648_6.93" x="4663.32" y="3013.42"/>
        <vehicle id="649_1.59" x="4510.49" y="3525.33"/>
        <vehicle id="651_5.103" x="4516.13" y="3511.84"/>
        <vehicle id="652_1.94" x="4503.99" y="3552.98"/>
        <vehicle id="654_5.71" x="4497.88" y="3534.70"/>
        <vehicle id="655_6.17" x="4503.16" y="3560.96"/>
        <vehicle id="65_1.23" x="3168.88" y="3233.52"/>
        <vehicle id="667_1.182" x="4716.80" y="2717.65"/>
        <vehicle id="668_5.166" x="4705.97" y="2706.37"/>
        <vehicle id="66_3.94" x="3167.24" y="3226.97"/>
        <vehicle id="670_2.408" x="4803.18" y="2830.52"/>
        <vehicle id="672_7.44" x="4762.83" y="2872.69"/>
        <vehicle id="676_2.4" x="5901.59" y="4799.90"/>
        <vehicle id="67_1.25" x="3959.24" y="3384.07"/>
        <vehicle id="693_1.51" x="5102.79" y="2377.83"/>
        <vehicle id="695_1.319" x="4539.05" y="2625.67"/>
        <vehicle id="696_3.115" x="4562.11" y="2630.63"/>
        <vehicle id="69_3.35" x="3952.05" y="3371.27"/>
        <vehicle id="704_1.53" x="5634.67" y="4091.26"/>
        <vehicle id="705_5.165" x="5647.15" y="4080.24"/>
        <vehicle id="707_2.95" x="5103.70" y="2703.43"/>
        <vehicle id="718_3.62" x="4351.23" y="2512.39"/>
        <vehicle id="72_5.33" x="4051.10" y="1959.43"/>
        <vehicle id="753_2.51" x="3677.03" y="3326.44"/>
        <vehicle id="754_3.58" x="3676.64" y="3335.50"/>
        <vehicle id="755_1.40" x="5145.04" y="3210.95"/>
        <vehicle id="756_2.82" x="5133.70" y="3215.79"/>
        <vehicle id="757_1.168" x="5149.54" y="3091.44"/>
        <vehicle id="758_2.27" x="4995.26" y="3083.98"/>
        <vehicle id="760_6.60" x="5083.75" y="3087.95"/>
        <vehicle id="763_1.27" x="3306.30" y="2434.20"/>
        <vehicle id="764_2.37" x="3288.76" y="2439.41"/>
        <vehicle id="766_1.124" x="3610.85" y="2483.28"/>
        <vehicle id="767_2.115" x="3604.31" y="2475.82"/>
        <vehicle id="771_4.56" x="3562.71" y="2471.65"/>
        <vehicle id="774_5.97" x="3231.68" y="2477.33"/>
        <vehicle id="775_2.71" x="2527.69" y="2753.37"/>
        <vehicle id="776_5.46" x="2550.25" y="2773.17"/>
        <vehicle id="78_5.52" x="4346.95" y="1312.82"/>
        <vehicle id="80_1.158" x="4123.36" y="2765.87"/>
        <vehicle id="812_1.117" x="5033.42" y="3261.26"/>
        <vehicle id="813_2.35" x="5038.81" y="3249.27"/>
        <vehicle id="82_5.129" x="4120.38" y="2779.10"/>
        <vehicle id="840_1.70" x="4052.86" y="2938.30"/>
        <vehicle id="850_3.22" x="2732.24" y="2819.22"/>
        <vehicle id="853_2.125" x="4936.97" y="2131.32"/>
        <vehicle id="855_1.17" x="2023.43" y="4526.72"/>
        <vehicle id="857_3.36" x="2021.09" y="4522.55"/>
        <vehicle id="863_2.26" x="5364.68" y="2792.84"/>
        <vehicle id="88_1.9" x="4634.54" y="3539.97"/>
        <vehicle id="8_1.93" x="5486.15" y="3850.05"/>
        <vehicle id="920_1.64" x="2463.19" y="2365.11"/>
        <vehicle id="956_2.28" x="1500.95" y="2235.10"/>
        <vehicle id="974_2.122" x="5171.36" y="3290.19"/>
        <vehicle id="977_6.91" x="5187.73" y="3283.41"/>
        <vehicle id="986_3.49" x="4458.56" y="1686.55"/>
    </timestep>
    <timestep time="18001.50">
        <vehicle id="1007_2.60" x="1855.91" y="4559.73"/>
        <vehicle id="103_1.22" x="4692.71" y="1070.98"/>
        <vehicle id="1072_3.45" x="5724.24" y="836.25"/>
        <vehicle id="1076_1.57" x="5221.42" y="1177.12"/>