<?xml version="1.0" encoding="UTF-8"?>

<!-- generated on 2022-01-19 14:52:33 by Eclipse SUMO sumo Version 1.11.0
<configuration xmlns:xsi="http://www.w3.org/2001/XMLSchema-instance" xsi:noNamespaceSchemaLocation="http://sumo.dlr.de/xsd/sumoConfiguration.xsd">

    <input>
        <net-file value="DCC.net.xml"/>
        <additional-files value="DCC_trafficlights.add.xml,vtypes.add.xml,DCC_routes.rou.xml,DCC_emitters.emi.xml,DCC_detectors.poi.xml"/>
    </input>

    <output>
        <fcd-output value="testsumo2"/>
        <fcd-output.attributes value="x,y"/>
    </output>

    <time>
        <begin value="0"/>
        <end value="100"/>
        <step-length value="0.5"/>
    </time>

    <routing>
        <device.rerouting.probability value="1"/>
        <device.rerouting.threads value="8"/>
    </routing>

    <gui_only>
        <tracker-interval value="0.5"/>
    </gui_only>

</configuration>
-->

<fcd-export xmlns:xsi="http://www.w3.org/2001/XMLSchema-instance" xsi:noNamespaceSchemaLocation="http://sumo.dlr.de/xsd/fcd_file.xsd">
    <timestep time="0.00">
        <vehicle id="1006_1.0" x="1839.24" y="4568.03"/>
        <vehicle id="1007_2.0" x="1896.51" y="4547.42"/>
        <vehicle id="104_2.0" x="4685.57" y="1068.28"/>
        <vehicle id="1072_3.0" x="5723.36" y="838.50"/>
        <vehicle id="1076_1.0" x="5226.04" y="1165.20"/>
        <vehicle id="1086_1.0" x="4287.49" y="2216.03"/>
        <vehicle id="1087_2.0" x="4290.60" y="2242.09"/>
        <vehicle id="1088_3.0" x="4295.92" y="2286.73"/>
        <vehicle id="108_3.0" x="3865.26" y="2469.70"/>
        <vehicle id="109_5.0" x="3861.38" y="2504.91"/>
        <vehicle id="110_6.0" x="3865.86" y="2456.45"/>
        <vehicle id="111_2.0" x="3601.66" y="3222.29"/>
        <vehicle id="112_3.0" x="3629.57" y="3231.88"/>
        <vehicle id="113_4.0" x="3641.38" y="3235.42"/>
        <vehicle id="1149_1.0" x="6161.37" y="2463.90"/>
        <vehicle id="114_1.0" x="3592.40" y="2743.90"/>
        <vehicle id="1151_3.0" x="6189.44" y="2456.10"/>
        <vehicle id="1158_4.0" x="5888.06" y="3146.30"/>
        <vehicle id="115_2.0" x="3590.27" y="2723.38"/>
        <vehicle id="116_4.0" x="3589.94" y="2734.62"/>
        <vehicle id="1170_1.0" x="1871.27" y="4552.09"/>
        <vehicle id="1171_2.0" x="1801.65" y="4586.74"/>
        <vehicle id="117_5.0" x="3585.10" y="2716.37"/>
        <vehicle id="118_6.0" x="3583.07" y="2708.71"/>
        <vehicle id="119_1.0" x="3679.14" y="1305.39"/>
        <vehicle id="124_3.0" x="5197.36" y="2344.29"/>
        <vehicle id="1273_1.0" x="5151.93" y="1329.43"/>
        <vehicle id="1274_2.0" x="5159.78" y="1323.45"/>
        <vehicle id="1278_3.0" x="3181.91" y="2790.50"/>
        <vehicle id="1288_6.0" x="2586.20" y="2441.22"/>
        <vehicle id="1289_10.0" x="2644.02" y="2444.62"/>
        <vehicle id="12_1.0" x="5251.81" y="3442.94"/>
        <vehicle id="1350_1.0" x="2122.52" y="2691.88"/>
        <vehicle id="1351_2.0" x="2057.54" y="2674.16"/>
        <vehicle id="1359_2.0" x="6359.88" y="3462.40"/>
        <vehicle id="1360_1.0" x="5903.69" y="3375.12"/>
        <vehicle id="1362_3.0" x="5922.70" y="3373.77"/>
        <vehicle id="1377_4.0" x="5890.98" y="3205.16"/>
        <vehicle id="1396_1.0" x="6089.74" y="2741.87"/>
        <vehicle id="1399_5.0" x="6084.67" y="2687.15"/>
        <vehicle id="13_5.0" x="5219.05" y="3427.98"/>
        <vehicle id="140_1.0" x="3691.38" y="3940.94"/>
        <vehicle id="142_3.0" x="3708.55" y="3790.25"/>
        <vehicle id="145_3.0" x="1432.86" y="2948.07"/>
        <vehicle id="151_2.0" x="2189.38" y="967.01"/>
        <vehicle id="153_4.0" x="2178.37" y="962.97"/>
        <vehicle id="154_1.0" x="4152.84" y="2631.68"/>
        <vehicle id="156_4.0" x="4159.34" y="2606.06"/>
        <vehicle id="157_1.0" x="4361.57" y="2604.61"/>
        <vehicle id="158_2.0" x="4400.26" y="2604.78"/>
        <vehicle id="169_1.0" x="2623.28" y="1371.49"/>
        <vehicle id="170_2.0" x="2609.97" y="1355.25"/>
        <vehicle id="173_1.0" x="4500.74" y="4464.53"/>
        <vehicle id="175_4.0" x="4513.42" y="4459.51"/>
        <vehicle id="177_1.0" x="4008.06" y="3597.99"/>
        <vehicle id="179_3.0" x="3996.29" y="3605.91"/>
        <vehicle id="181_1.0" x="4189.26" y="3944.35"/>
        <vehicle id="183_3.0" x="4139.33" y="3963.99"/>
        <vehicle id="184_4.0" x="4163.62" y="3954.43"/>
        <vehicle id="185_1.0" x="4425.61" y="4273.07"/>
        <vehicle id="186_2.0" x="4416.11" y="4277.57"/>
        <vehicle id="187_3.0" x="4405.74" y="4282.49"/>
        <vehicle id="189_3.0" x="4118.02" y="3727.02"/>
        <vehicle id="190_4.0" x="4126.47" y="3721.93"/>
        <vehicle id="191_6.0" x="4093.38" y="3741.88"/>
        <vehicle id="192_1.0" x="4458.21" y="4357.66"/>
        <vehicle id="210_2.0" x="4929.89" y="5346.65"/>
        <vehicle id="212_4.0" x="5134.14" y="5257.09"/>
        <vehicle id="213_1.0" x="4554.99" y="4590.00"/>
        <vehicle id="215_3.0" x="4528.89" y="4599.64"/>
        <vehicle id="21_1.0" x="5582.33" y="1528.40"/>
        <vehicle id="226_1.0" x="6106.38" y="4740.42"/>
        <vehicle id="228_4.0" x="6115.73" y="4743.35"/>
        <vehicle id="22_2.0" x="5529.80" y="1499.57"/>
        <vehicle id="237_1.0" x="4634.11" y="4044.68"/>
        <vehicle id="23_3.0" x="5552.02" y="1511.77"/>
        <vehicle id="240_2.0" x="6432.35" y="1970.51"/>
        <vehicle id="243_6.0" x="6386.49" y="1924.13"/>
        <vehicle id="248_1.0" x="3675.93" y="963.77"/>
        <vehicle id="24_4.0" x="5590.89" y="1533.10"/>
        <vehicle id="263_1.0" x="4111.12" y="1291.23"/>
        <vehicle id="265_3.0" x="4134.27" y="1293.75"/>
        <vehicle id="28_4.0" x="5295.61" y="1875.33"/>
        <vehicle id="292_3.0" x="4208.00" y="3017.93"/>
        <vehicle id="312_3.0" x="5529.76" y="960.56"/>
        <vehicle id="314_6.0" x="5518.09" y="965.05"/>
        <vehicle id="315_1.0" x="5141.68" y="1305.78"/>
        <vehicle id="31_4.0" x="5695.57" y="1498.98"/>
        <vehicle id="33_2.0" x="5565.54" y="4594.20"/>
        <vehicle id="34_3.0" x="5665.34" y="4576.46"/>
        <vehicle id="356_1.0" x="5036.42" y="1985.07"/>
        <vehicle id="357_2.0" x="5000.04" y="1996.08"/>
        <vehicle id="35_4.0" x="5631.66" y="4582.32"/>
        <vehicle id="365_1.0" x="5847.34" y="712.81"/>
        <vehicle id="367_3.0" x="5949.22" y="587.74"/>
        <vehicle id="374_2.0" x="5960.16" y="1948.03"/>
        <vehicle id="377_6.0" x="5945.54" y="1950.91"/>
        <vehicle id="396_1.0" x="1611.87" y="4667.20"/>
        <vehicle id="401_2.0" x="3847.16" y="2250.84"/>
        <vehicle id="402_3.0" x="3844.14" y="2232.34"/>
        <vehicle id="403_1.0" x="3515.61" y="4425.08"/>
        <vehicle id="407_3.0" x="4526.87" y="4336.17"/>
        <vehicle id="408_4.0" x="4591.57" y="4316.94"/>
        <vehicle id="409_6.0" x="4616.47" y="4312.71"/>
        <vehicle id="410_2.0" x="4932.46" y="4216.14"/>
        <vehicle id="412_5.0" x="4882.45" y="4228.22"/>
        <vehicle id="416_3.0" x="2083.42" y="3419.04"/>
        <vehicle id="423_1.0" x="5887.63" y="4542.25"/>
        <vehicle id="425_3.0" x="5918.13" y="4527.32"/>
        <vehicle id="429_3.0" x="6061.95" y="1858.65"/>
        <vehicle id="431_2.0" x="6335.96" y="1350.84"/>
        <vehicle id="442_1.0" x="2257.81" y="2970.83"/>
        <vehicle id="447_1.0" x="2867.67" y="1077.85"/>
        <vehicle id="448_2.0" x="2883.66" y="1074.52"/>
        <vehicle id="451_1.0" x="4306.41" y="3837.39"/>
        <vehicle id="454_1.0" x="4790.47" y="3769.98"/>
        <vehicle id="455_2.0" x="4773.24" y="3805.96"/>
        <vehicle id="456_5.0" x="4803.03" y="3743.49"/>
        <vehicle id="458_1.0" x="3832.90" y="2007.78"/>
        <vehicle id="459_2.0" x="3831.64" y="2016.03"/>
        <vehicle id="462_7.0" x="3833.16" y="2034.74"/>
        <vehicle id="464_1.0" x="5644.82" y="2556.12"/>
        <vehicle id="466_3.0" x="5642.53" y="2553.46"/>
        <vehicle id="468_1.0" x="5921.85" y="2620.34"/>
        <vehicle id="469_2.0" x="5922.50" y="2628.20"/>
        <vehicle id="470_3.0" x="5919.67" y="2594.21"/>
        <vehicle id="471_4.0" x="5923.41" y="2639.10"/>
        <vehicle id="477_3.0" x="5274.23" y="2661.98"/>
        <vehicle id="478_4.0" x="5232.31" y="2673.98"/>
        <vehicle id="483_5.0" x="6568.19" y="1066.02"/>
        <vehicle id="485_2.0" x="3691.48" y="4630.53"/>
        <vehicle id="487_4.0" x="3659.53" y="4637.68"/>
        <vehicle id="489_1.0" x="3669.48" y="4428.67"/>
        <vehicle id="490_2.0" x="3607.42" y="4424.80"/>
        <vehicle id="491_3.0" x="3587.46" y="4423.68"/>
        <vehicle id="492_4.0" x="3716.33" y="4430.57"/>
        <vehicle id="498_3.0" x="2686.59" y="3997.27"/>
        <vehicle id="500_1.0" x="3284.12" y="2827.17"/>
        <vehicle id="501_2.0" x="3279.70" y="2804.30"/>
        <vehicle id="503_5.0" x="3278.41" y="2814.39"/>
        <vehicle id="533_1.0" x="6273.54" y="2445.17"/>
        <vehicle id="535_3.0" x="6437.01" y="2414.24"/>
        <vehicle id="541_6.0" x="4768.63" y="1773.32"/>
        <vehicle id="543_1.0" x="4483.77" y="2021.24"/>
        <vehicle id="544_4.0" x="4398.62" y="2047.93"/>
        <vehicle id="550_1.0" x="4820.67" y="3713.82"/>
        <vehicle id="552_3.0" x="4866.84" y="3616.58"/>
        <vehicle id="560_3.0" x="6246.67" y="3353.45"/>
        <vehicle id="562_1.0" x="3084.23" y="1161.50"/>
        <vehicle id="564_3.0" x="3119.87" y="1152.70"/>
        <vehicle id="565_4.0" x="3016.75" y="1184.58"/>
        <vehicle id="569_5.0" x="1487.89" y="2148.06"/>
        <vehicle id="572_3.0" x="1456.80" y="2429.84"/>
        <vehicle id="573_4.0" x="1455.50" y="2438.20"/>
        <vehicle id="57_1.0" x="4947.67" y="3088.93"/>
        <vehicle id="586_7.0" x="1585.72" y="1662.91"/>
        <vehicle id="58_5.0" x="4951.99" y="3087.49"/>
        <vehicle id="593_1.0" x="5225.77" y="4111.79"/>
        <vehicle id="594_4.0" x="5252.16" y="4084.03"/>
        <vehicle id="595_5.0" x="5235.33" y="4103.75"/>
        <vehicle id="609_1.0" x="4956.80" y="3424.02"/>
        <vehicle id="60_2.0" x="3917.71" y="4414.50"/>
        <vehicle id="611_3.0" x="4973.58" y="3389.85"/>
        <vehicle id="612_2.0" x="4940.58" y="2993.13"/>
        <vehicle id="613_3.0" x="4925.26" y="2995.83"/>
        <vehicle id="616_3.0" x="4959.60" y="2827.92"/>
        <vehicle id="617_4.0" x="4957.77" y="2855.37"/>
        <vehicle id="622_5.0" x="5129.84" y="2812.06"/>
        <vehicle id="627_1.0" x="3036.47" y="2838.78"/>
        <vehicle id="630_7.0" x="3039.38" y="2850.08"/>
        <vehicle id="633_2.0" x="4273.99" y="1875.42"/>
        <vehicle id="636_2.0" x="3833.59" y="2684.94"/>
        <vehicle id="637_3.0" x="3829.71" y="2713.17"/>
        <vehicle id="640_1.0" x="5897.58" y="4374.90"/>
        <vehicle id="641_2.0" x="5900.97" y="4374.20"/>
        <vehicle id="643_1.0" x="4689.22" y="2918.71"/>
        <vehicle id="644_2.0" x="4687.98" y="2921.65"/>
        <vehicle id="646_1.0" x="4663.19" y="3013.85"/>
        <vehicle id="647_3.0" x="4648.57" y="3061.43"/>
        <vehicle id="648_6.0" x="4667.44" y="3000.03"/>
        <vehicle id="649_1.0" x="4513.42" y="3509.64"/>
        <vehicle id="651_5.0" x="4517.60" y="3506.54"/>
        <vehicle id="652_1.0" x="4502.96" y="3545.78"/>
        <vehicle id="654_5.0" x="4503.68" y="3556.83"/>
        <vehicle id="65_1.0" x="3170.65" y="3213.46"/>
        <vehicle id="667_1.0" x="4712.95" y="2714.01"/>
        <vehicle id="668_5.0" x="4721.75" y="2722.32"/>
        <vehicle id="669_1.0" x="4731.62" y="2905.31"/>
        <vehicle id="670_2.0" x="4812.26" y="2821.03"/>
        <vehicle id="672_7.0" x="4761.30" y="2874.29"/>
        <vehicle id="675_1.0" x="5897.46" y="4948.53"/>
        <vehicle id="681_1.0" x="5881.86" y="2176.04"/>
        <vehicle id="693_1.0" x="5089.36" y="2382.01"/>
        <vehicle id="694_3.0" x="5073.59" y="2386.98"/>
        <vehicle id="695_1.0" x="4558.92" y="2629.81"/>
        <vehicle id="696_3.0" x="4541.99" y="2626.27"/>
        <vehicle id="697_4.0" x="4529.50" y="2623.72"/>
        <vehicle id="69_3.0" x="3953.64" y="3373.82"/>
        <vehicle id="704_1.0" x="5637.26" y="4088.98"/>
        <vehicle id="705_5.0" x="5657.14" y="4071.42"/>
        <vehicle id="707_2.0" x="5125.16" y="2697.77"/>
        <vehicle id="718_3.0" x="4351.40" y="2508.92"/>
        <vehicle id="74_1.0" x="4357.26" y="1436.48"/>
        <vehicle id="753_2.0" x="3671.93" y="3321.17"/>
        <vehicle id="754_3.0" x="3679.58" y="3334.17"/>
        <vehicle id="755_1.0" x="5125.38" y="3217.54"/>
        <vehicle id="757_1.0" x="5007.40" y="3084.22"/>
        <vehicle id="759_5.0" x="5005.76" y="3087.39"/>
        <vehicle id="75_5.0" x="4349.87" y="1444.54"/>
        <vehicle id="760_6.0" x="5091.36" y="3088.36"/>
        <vehicle id="763_1.0" x="3350.73" y="2423.77"/>
        <vehicle id="764_2.0" x="3265.73" y="2442.94"/>
        <vehicle id="765_3.0" x="3357.66" y="2419.16"/>
        <vehicle id="766_1.0" x="3611.07" y="2483.52"/>
        <vehicle id="767_2.0" x="3601.59" y="2472.72"/>
        <vehicle id="76_3.0" x="4335.64" y="1311.87"/>
        <vehicle id="771_4.0" x="3547.42" y="2498.63"/>
        <vehicle id="772_1.0" x="3234.72" y="2511.73"/>
        <vehicle id="773_2.0" x="3230.56" y="2464.58"/>
        <vehicle id="774_5.0" x="3232.54" y="2486.99"/>
        <vehicle id="775_2.0" x="2544.08" y="2762.67"/>
        <vehicle id="776_5.0" x="2563.45" y="2814.35"/>
        <vehicle id="78_5.0" x="4318.71" y="1310.39"/>
        <vehicle id="80_1.0" x="4129.49" y="2753.19"/>
        <vehicle id="812_1.0" x="5038.94" y="3248.99"/>
        <vehicle id="82_5.0" x="4124.59" y="2774.97"/>
        <vehicle id="840_1.0" x="4025.58" y="2930.56"/>
        <vehicle id="850_3.0" x="2665.48" y="2825.05"/>
        <vehicle id="851_4.0" x="2599.00" y="2837.65"/>
        <vehicle id="853_2.0" x="4903.71" y="2051.51"/>
        <vehicle id="855_1.0" x="2021.82" y="4519.33"/>
        <vehicle id="857_3.0" x="2031.17" y="4471.11"/>
        <vehicle id="859_1.0" x="2007.65" y="1925.39"/>
        <vehicle id="862_1.0" x="5291.29" y="2798.52"/>
        <vehicle id="875_7.0" x="6367.22" y="4145.84"/>
        <vehicle id="89_2.0" x="4638.30" y="3542.75"/>
        <vehicle id="8_1.0" x="5491.98" y="3852.48"/>
        <vehicle id="920_1.0" x="2520.30" y="2387.38"/>
        <vehicle id="956_2.0" x="1484.61" y="2235.51"/>
        <vehicle id="958_5.0" x="1503.30" y="2235.05"/>
        <vehicle id="974_2.0" x="5203.38" y="3276.91"/>
        <vehicle id="977_6.0" x="5209.28" y="3274.33"/>
        <vehicle id="986_3.0" x="4480.04" y="1520.29"/>
        <vehicle id="9_2.0" x="5477.87" y="3846.60"/>
    </timestep>
    <timestep time="0.50">
        <vehicle id="1006_1.0" x="1832.71" y="4571.28"/>
        <vehicle id="1007_2.0" x="1889.52" y="4547.33"/>
        <vehicle id="104_2.0" x="4689.03" y="1069.59"/>
        <vehicle id="1072_3.0" x="5724.02" y="838.12"/>
        <vehicle id="1076_1.0" x="5223.68" y="1171.34"/>
        <vehicle id="1086_1.0" x="4287.97" y="2220.00"/>
        <vehicle id="1087_2.0" x="4291.10" y="2246.28"/>
        <vehicle id="1088_3.0" x="4296.39" y="2290.69"/>
        <vehicle id="108_3.0" x="3864.50" y="2476.89"/>
        <vehicle id="109_5.0" x="3861.09" y="2511.68"/>
        <vehicle id="10_3.0" x="5473.75" y="3844.88"/>
        <vehicle id="110_6.0" x="3865.85" y="2462.18"/>
        <vehicle id="111_2.0" x="3598.33" y="3221.15"/>
        <vehicle id="112_3.0" x="3625.42" y="3230.45"/>
        <vehicle id="113_4.0" x="3638.27" y="3234.76"/>
        <vehicle id="1149_1.0" x="6168.70" y="2462.78"/>
        <vehicle id="114_1.0" x="3593.61" y="2748.48"/>
        <vehicle id="1151_3.0" x="6196.14" y="2454.85"/>
        <vehicle id="1158_4.0" x="5888.48" y="3153.84"/>
        <vehicle id="115_2.0" x="3591.79" y="2729.12"/>
        <vehicle id="116_4.0" x="3590.69" y="2737.44"/>
        <vehicle id="1170_1.0" x="1864.40" y="4555.51"/>
        <vehicle id="1171_2.0" x="1796.14" y="4591.31"/>
        <vehicle id="117_5.0" x="3586.01" y="2719.79"/>
        <vehicle id="118_6.0" x="3583.49" y="2710.29"/>
        <vehicle id="119_1.0" x="3678.62" y="1312.66"/>
        <vehicle id="124_3.0" x="5201.47" y="2342.23"/>
        <vehicle id="1273_1.0" x="5154.63" y="1325.39"/>
        <vehicle id="1274_2.0" x="5163.62" y="1317.79"/>
        <vehicle id="1278_3.0" x="3173.78" y="2791.53"/>
        <vehicle id="1288_6.0" x="2585.39" y="2441.23"/>
        <vehicle id="1289_10.0" x="2636.37" y="2444.37"/>
        <vehicle id="12_1.0" x="5247.87" y="3442.43"/>
        <vehicle id="1350_1.0" x="2130.49" y="2693.29"/>
        <vehicle id="1351_2.0" x="2065.07" y="2676.19"/>
        <vehicle id="1359_2.0" x="6355.84" y="3456.38"/>
        <vehicle id="1360_1.0" x="5898.08" y="3375.52"/>
        <vehicle id="1362_3.0" x="5917.49" y="3374.14"/>
        <vehicle id="1377_4.0" x="5891.33" y="3211.82"/>
        <vehicle id="1396_1.0" x="6090.12" y="2745.96"/>
        <vehicle id="1399_5.0" x="6085.03" y="2691.04"/>
        <vehicle id="13_5.0" x="5215.85" y="3426.95"/>
        <vehicle id="140_1.0" x="3691.84" y="3934.21"/>
        <vehicle id="142_3.0" x="3709.45" y="3783.59"/>
        <vehicle id="145_3.0" x="1439.04" y="2948.90"/>
        <vehicle id="151_2.0" x="2184.17" y="963.23"/>
        <vehicle id="153_4.0" x="2176.85" y="961.90"/>
        <vehicle id="154_1.0" x="4153.93" y="2627.40"/>
        <vehicle id="156_4.0" x="4160.20" y="2602.69"/>
        <vehicle id="157_1.0" x="4365.97" y="2604.97"/>
        <vehicle id="158_2.0" x="4396.30" y="2604.38"/>
        <vehicle id="169_1.0" x="2627.26" y="1376.36"/>
        <vehicle id="170_2.0" x="2613.87" y="1360.01"/>
        <vehicle id="173_1.0" x="4504.38" y="4463.09"/>
        <vehicle id="175_4.0" x="4517.32" y="4457.97"/>
        <vehicle id="177_1.0" x="4011.80" y="3595.48"/>
        <vehicle id="179_3.0" x="3999.37" y="3603.84"/>
        <vehicle id="181_1.0" x="4192.39" y="3943.12"/>
        <vehicle id="183_3.0" x="4143.27" y="3962.44"/>
        <vehicle id="184_4.0" x="4167.48" y="3952.91"/>
        <vehicle id="185_1.0" x="4429.64" y="4271.16"/>
        <vehicle id="186_2.0" x="4418.61" y="4276.39"/>
        <vehicle id="187_3.0" x="4407.60" y="4281.61"/>
        <vehicle id="189_3.0" x="4114.48" y="3729.16"/>
        <vehicle id="190_4.0" x="4123.91" y="3723.47"/>
        <vehicle id="191_6.0" x="4090.06" y="3743.90"/>
        <vehicle id="192_1.0" x="4464.98" y="4355.93"/>
        <vehicle id="193_2.0" x="4456.40" y="4358.13"/>
        <vehicle id="210_2.0" x="4923.60" y="5348.00"/>
        <vehicle id="212_4.0" x="5128.92" y="5261.27"/>
        <vehicle id="213_1.0" x="4561.77" y="4587.50"/>
        <vehicle id="215_3.0" x="4535.37" y="4597.25"/>
        <vehicle id="21_1.0" x="5578.38" y="1526.24"/>
        <vehicle id="226_1.0" x="6099.38" y="4738.09"/>
        <vehicle id="228_4.0" x="6110.71" y="4741.77"/>
        <vehicle id="22_2.0" x="5528.06" y="1498.61"/>
        <vehicle id="237_1.0" x="4630.27" y="4050.63"/>
        <vehicle id="23_3.0" x="5548.46" y="1509.81"/>
        <vehicle id="240_2.0" x="6434.43" y="1975.96"/>
        <vehicle id="243_6.0" x="6391.71" y="1928.37"/>
        <vehicle id="248_1.0" x="3676.99" y="971.10"/>
        <vehicle id="24_4.0" x="5588.05" y="1531.55"/>
        <vehicle id="263_1.0" x="4116.27" y="1291.79"/>
        <vehicle id="265_3.0" x="4137.41" y="1294.39"/>
        <vehicle id="28_4.0" x="5292.35" y="1877.20"/>
        <vehicle id="292_3.0" x="4206.90" y="3022.01"/>
        <vehicle id="312_3.0" x="5534.80" y="956.94"/>
        <vehicle id="314_6.0" x="5525.33" y="959.81"/>
        <vehicle id="315_1.0" x="5134.93" y="1302.83"/>
        <vehicle id="316_2.0" x="5145.57" y="1307.43"/>
        <vehicle id="31_4.0" x="5690.33" y="1503.31"/>
        <vehicle id="33_2.0" x="5572.37" y="4592.97"/>
        <vehicle id="34_3.0" x="5672.67" y="4575.18"/>
        <vehicle id="356_1.0" x="5040.15" y="1983.59"/>
        <vehicle id="357_2.0" x="5004.23" y="1994.41"/>
        <vehicle id="35_4.0" x="5637.74" y="4581.25"/>
        <vehicle id="365_1.0" x="5851.18" y="708.18"/>
        <vehicle id="367_3.0" x="5953.80" y="582.92"/>
        <vehicle id="374_2.0" x="5967.48" y="1945.00"/>
        <vehicle id="377_6.0" x="5949.26" y="1949.29"/>
        <vehicle id="396_1.0" x="1618.31" y="4663.86"/>
        <vehicle id="401_2.0" x="3847.22" y="2243.94"/>
        <vehicle id="402_3.0" x="3844.20" y="2225.73"/>
        <vehicle id="403_1.0" x="3521.47" y="4425.15"/>
        <vehicle id="407_3.0" x="4534.54" y="4334.04"/>
        <vehicle id="408_4.0" x="4598.77" y="4314.75"/>
        <vehicle id="409_6.0" x="4622.62" y="4310.84"/>
        <vehicle id="410_2.0" x="4935.98" y="4215.02"/>
        <vehicle id="412_5.0" x="4888.60" y="4226.41"/>
        <vehicle id="416_3.0" x="2088.81" y="3425.68"/>
        <vehicle id="423_1.0" x="5893.81" y="4539.33"/>
        <vehicle id="425_3.0" x="5923.98" y="4524.21"/>
        <vehicle id="429_3.0" x="6067.25" y="1853.71"/>
        <vehicle id="431_2.0" x="6333.12" y="1356.93"/>
        <vehicle id="432_3.0" x="6335.90" y="1350.97"/>
        <vehicle id="442_1.0" x="2265.75" y="2970.40"/>
        <vehicle id="447_1.0" x="2861.23" y="1079.19"/>
        <vehicle id="448_2.0" x="2878.06" y="1075.69"/>
        <vehicle id="451_1.0" x="4304.42" y="3840.11"/>
        <vehicle id="454_1.0" x="4787.29" y="3776.69"/>
        <vehicle id="455_2.0" x="4770.24" y="3812.12"/>
        <vehicle id="456_5.0" x="4800.56" y="3748.71"/>
        <vehicle id="458_1.0" x="3833.08" y="2006.63"/>
        <vehicle id="459_2.0" x="3831.71" y="2015.53"/>
        <vehicle id="462_7.0" x="3832.83" y="2031.72"/>
        <vehicle id="464_1.0" x="5652.23" y="2553.90"/>
        <vehicle id="466_3.0" x="5649.25" y="2551.45"/>
        <vehicle id="468_1.0" x="5921.33" y="2614.10"/>
        <vehicle id="469_2.0" x="5922.17" y="2624.17"/>
        <vehicle id="470_3.0" x="5919.05" y="2586.71"/>
        <vehicle id="471_4.0" x="5923.18" y="2636.37"/>
        <vehicle id="477_3.0" x="5268.42" y="2663.64"/>
        <vehicle id="478_4.0" x="5227.35" y="2675.40"/>
        <vehicle id="483_5.0" x="6573.75" y="1061.73"/>
        <vehicle id="485_2.0" x="3697.80" y="4629.34"/>
        <vehicle id="487_4.0" x="3665.87" y="4636.18"/>
        <vehicle id="489_1.0" x="3677.17" y="4428.99"/>
        <vehicle id="490_2.0" x="3613.69" y="4425.15"/>
        <vehicle id="491_3.0" x="3593.78" y="4424.04"/>
        <vehicle id="492_4.0" x="3718.60" y="4430.60"/>
        <vehicle id="498_3.0" x="2693.71" y="3999.99"/>
        <vehicle id="500_1.0" x="3283.07" y="2821.70"/>
        <vehicle id="501_2.0" x="3278.56" y="2798.97"/>
        <vehicle id="503_5.0" x="3277.09" y="2807.51"/>
        <vehicle id="533_1.0" x="6278.42" y="2444.36"/>
        <vehicle id="535_3.0" x="6444.84" y="2412.94"/>
        <vehicle id="541_6.0" x="4773.60" y="1771.30"/>
        <vehicle id="543_1.0" x="4480.17" y="2022.34"/>
        <vehicle id="544_4.0" x="4394.83" y="2049.12"/>
        <vehicle id="550_1.0" x="4818.60" y="3718.17"/>
        <vehicle id="552_3.0" x="4863.71" y="3623.17"/>
        <vehicle id="560_3.0" x="6253.50" y="3352.94"/>
        <vehicle id="562_1.0" x="3091.01" y="1159.19"/>
        <vehicle id="564_3.0" x="3123.11" y="1151.93"/>
        <vehicle id="565_4.0" x="3022.36" y="1182.66"/>
        <vehicle id="569_5.0" x="1489.02" y="2140.50"/>
        <vehicle id="572_3.0" x="1457.77" y="2422.75"/>
        <vehicle id="573_4.0" x="1456.26" y="2433.38"/>
        <vehicle id="57_1.0" x="4950.92" y="3090.84"/>
        <vehicle id="586_7.0" x="1586.26" y="1662.10"/>
        <vehicle id="58_5.0" x="4954.90" y="3090.14"/>
        <vehicle id="593_1.0" x="5219.97" y="4115.85"/>
        <vehicle id="594_4.0" x="5247.84" y="4089.09"/>
        <vehicle id="595_5.0" x="5230.98" y="4107.41"/>
        <vehicle id="609_1.0" x="4953.81" y="3430.12"/>
        <vehicle id="60_2.0" x="3922.58" y="4413.86"/>
        <vehicle id="611_3.0" x="4970.78" y="3395.57"/>
        <vehicle id="612_2.0" x="4934.83" y="2993.20"/>
        <vehicle id="613_3.0" x="4919.43" y="2995.30"/>
        <vehicle id="616_3.0" x="4959.13" y="2834.92"/>
        <vehicle id="617_4.0" x="4957.57" y="2862.95"/>
        <vehicle id="622_5.0" x="5133.86" y="2811.94"/>
        <vehicle id="627_1.0" x="3034.99" y="2833.06"/>
        <vehicle id="630_7.0" x="3037.96" y="2844.56"/>
        <vehicle id="633_2.0" x="4275.74" y="1877.44"/>
        <vehicle id="636_2.0" x="3832.66" y="2691.76"/>
        <vehicle id="637_3.0" x="3829.08" y="2717.75"/>
        <vehicle id="638_6.0" x="3833.78" y="2683.57"/>
        <vehicle id="640_1.0" x="5901.60" y="4381.48"/>
        <vehicle id="641_2.0" x="5902.18" y="4375.95"/>
        <vehicle id="643_1.0" x="4689.22" y="2918.71"/>
        <vehicle id="644_2.0" x="4687.98" y="2921.65"/>
        <vehicle id="646_1.0" x="4661.88" y="3018.12"/>
        <vehicle id="647_3.0" x="4647.55" y="3064.75"/>
        <vehicle id="648_6.0" x="4666.23" y="3003.98"/>
        <vehicle id="649_1.0" x="4512.21" y="3513.98"/>
        <vehicle id="651_5.0" x="4516.37" y="3510.95"/>
        <vehicle id="652_1.0" x="4501.65" y="3541.73"/>
        <vehicle id="654_5.0" x="4504.02" y="3554.12"/>
        <vehicle id="65_1.0" x="3168.84" y="3220.65"/>
        <vehicle id="667_1.0" x="4710.25" y="2711.46"/>
        <vehicle id="668_5.0" x="4719.89" y="2720.57"/>
        <vehicle id="669_1.0" x="4734.26" y="2902.56"/>
        <vehicle id="66_3.0" x="3170.70" y="3213.23"/>
        <vehicle id="670_2.0" x="4815.72" y="2817.58"/>
        <vehicle id="672_7.0" x="4764.22" y="2871.24"/>
        <vehicle id="675_1.0" x="5897.33" y="4954.22"/>
        <vehicle id="681_1.0" x="5881.86" y="2176.04"/>
        <vehicle id="693_1.0" x="5093.39" y="2380.76"/>
        <vehicle id="694_3.0" x="5077.22" y="2385.81"/>
        <vehicle id="695_1.0" x="4563.25" y="2630.92"/>
        <vehicle id="696_3.0" x="4545.77" y="2627.04"/>
        <vehicle id="697_4.0" x="4532.22" y="2624.27"/>
        <vehicle id="69_3.0" x="3956.77" y="3378.82"/>
        <vehicle id="704_1.0" x="5632.61" y="4093.01"/>
        <vehicle id="705_5.0" x="5652.14" y="4075.84"/>
        <vehicle id="707_2.0" x="5118.20" y="2699.61"/>
        <vehicle id="718_3.0" x="4351.23" y="2512.37"/>
        <vehicle id="74_1.0" x="4361.15" y="1434.41"/>
        <vehicle id="753_2.0" x="3674.11" y="3327.80"/>
        <vehicle id="754_3.0" x="3681.75" y="3340.54"/>
        <vehicle id="755_1.0" x="5132.56" y="3216.03"/>
        <vehicle id="756_2.0" x="5125.72" y="3217.47"/>
        <vehicle id="757_1.0" x="5015.36" y="3084.37"/>
        <vehicle id="759_5.0" x="5012.17" y="3087.51"/>
        <vehicle id="75_5.0" x="4351.33" y="1442.37"/>
        <vehicle id="760_6.0" x="5096.67" y="3088.64"/>
        <vehicle id="763_1.0" x="3357.73" y="2422.41"/>
        <vehicle id="764_2.0" x="3271.83" y="2441.11"/>
        <vehicle id="765_3.0" x="3364.56" y="2417.88"/>
        <vehicle id="766_1.0" x="3614.45" y="2487.38"/>
        <vehicle id="767_2.0" x="3604.24" y="2475.74"/>
        <vehicle id="768_3.0" x="3599.94" y="2470.84"/>
        <vehicle id="76_3.0" x="4342.59" y="1312.45"/>
        <vehicle id="771_4.0" x="3549.36" y="2495.21"/>
        <vehicle id="772_1.0" x="3234.89" y="2513.61"/>
        <vehicle id="773_2.0" x="3230.93" y="2468.78"/>
        <vehicle id="774_5.0" x="3232.92" y="2491.27"/>
        <vehicle id="775_2.0" x="2538.85" y="2758.33"/>
        <vehicle id="776_5.0" x="2560.52" y="2807.66"/>
        <vehicle id="78_5.0" x="4325.02" y="1310.98"/>
        <vehicle id="79_6.0" x="4314.71" y="1309.99"/>
        <vehicle id="80_1.0" x="4130.84" y="2747.21"/>
        <vehicle id="812_1.0" x="5035.44" y="3256.78"/>
        <vehicle id="813_2.0" x="5038.86" y="3249.17"/>
        <vehicle id="82_5.0" x="4125.94" y="2768.99"/>
        <vehicle id="840_1.0" x="4029.25" y="2931.60"/>
        <vehicle id="850_3.0" x="2659.53" y="2826.03"/>
        <vehicle id="851_4.0" x="2594.71" y="2838.60"/>
        <vehicle id="853_2.0" x="4905.37" y="2055.44"/>
        <vehicle id="855_1.0" x="2020.42" y="4525.53"/>
        <vehicle id="857_3.0" x="2030.97" y="4479.17"/>
        <vehicle id="859_1.0" x="2005.24" y="1928.27"/>
        <vehicle id="862_1.0" x="5295.38" y="2798.16"/>
        <vehicle id="875_7.0" x="6361.99" y="4150.48"/>
        <vehicle id="89_2.0" x="4634.52" y="3539.96"/>
        <vehicle id="8_1.0" x="5494.49" y="3853.53"/>
        <vehicle id="920_1.0" x="2526.17" y="2389.61"/>
        <vehicle id="956_2.0" x="1488.57" y="2235.41"/>
        <vehicle id="958_5.0" x="1507.41" y="2234.94"/>
        <vehicle id="974_2.0" x="5199.82" y="3278.39"/>
        <vehicle id="977_6.0" x="5208.82" y="3274.53"/>
        <vehicle id="986_3.0" x="4478.78" y="1524.91"/>
        <vehicle id="9_2.0" x="5481.70" y="3848.20"/>
    </timestep>
    <timestep time="1.00">
        <vehicle id="1006_1.0" x="1826.33" y="4574.46"/>
        <vehicle id="1007_2.0" x="1882.53" y="4547.88"/>
        <vehicle id="104_2.0" x="4691.45" y="1070.50"/>
        <vehicle id="1072_3.0" x="5724.99" y="837.56"/>
        <vehicle id="1076_1.0" x="5221.33" y="1177.35"/>
        <vehicle id="1086_1.0" x="4288.44" y="2223.98"/>
        <vehicle id="1087_2.0" x="4291.62" y="2250.67"/>
        <vehicle id="1088_3.0" x="4296.79" y="2294.58"/>
        <vehicle id="108_3.0" x="3863.97" y="2483.84"/>
        <vehicle id="109_5.0" x="3861.81" y="2518.46"/>
        <vehicle id="10_3.0" x="5475.86" y="3845.76"/>
        <vehicle id="110_6.0" x="3865.45" y="2467.87"/>
        <vehicle id="111_2.0" x="3594.92" y="3219.98"/>
        <vehicle id="112_3.0" x="3621.24" y="3229.02"/>
        <vehicle id="113_4.0" x="3635.08" y="3233.77"/>
        <vehicle id="1149_1.0" x="6176.00" y="2461.59"/>
        <vehicle id="114_1.0" x="3594.54" y="2751.98"/>